 Gaussian 16, Revision A.03,
 Gaussian 16:  ES64L-G16RevA.03 25-Dec-2016

 -------------------
 #p opt b3lyp/sto-3g
 -------------------

 -------
 TitleMe
 -------
 Symbolic Z-matrix:
 Charge =  0 Multiplicity = 1

 SCF Done:  E(RB3LYP) =  -229.318563131     A.U. after   13 cycles
 SCF Done:  E(RB3LYP) =  -229.341967062     A.U. after   13 cycles
 SCF Done:  E(RB3LYP) =  -229.342296720     A.U. after   11 cycles
 SCF Done:  E(RB3LYP) =  -229.342317016     A.U. after    8 cycles
 SCF Done:  E(RB3LYP) =  -229.342318879     A.U. after    7 cycles
 Optimization completed.
    -- Stationary point found.

                         Standard orientation:
 ---------------------------------------------------------------------
 Center     Atomic      Atomic             Coordinates (Angstroms)
 Number     Number       Type             X           Y           Z
 ---------------------------------------------------------------------
      1          6           0        0.134373    1.194724   -0.000002
      2          6           0        1.417223    0.748795    0.000001
      3          6           0        1.417128   -0.748913    0.000003
      4          6           0        0.134231   -1.194698   -0.000003
      5          1           0       -0.218224    2.231221   -0.000004
      6          1           0        2.327635    1.360372    0.000000
      7          1           0        2.327484   -1.360573    0.000004
      8          1           0       -0.218532   -2.231140   -0.000006
      9          6           0       -0.775711    0.000066    0.000000
     10          6           0       -2.128208    0.000061    0.000002
     11          1           0       -2.706295    0.934066    0.000002
     12          1           0       -2.706279   -0.934153    0.000001
 ---------------------------------------------------------------------

 The electronic state is 1-A.
 Alpha  occ. eigenvalues --  -10.01880 -10.01533  -9.99372  -9.99277  -9.98690
 Alpha  occ. eigenvalues --   -9.98681  -0.80418  -0.70794  -0.65823  -0.58192
 Alpha  occ. eigenvalues --   -0.49563  -0.48460  -0.45676  -0.40055  -0.35370
 Alpha  occ. eigenvalues --   -0.34028  -0.31363  -0.30925  -0.29167  -0.19702
 Alpha  occ. eigenvalues --   -0.15537
 Alpha virt. eigenvalues --    0.01777   0.18574   0.20644   0.32950   0.37428
 Alpha virt. eigenvalues --    0.39653   0.40809   0.41581   0.46307   0.53483
 Alpha virt. eigenvalues --    0.54279   0.58478   0.65699   0.77873   0.78755

 Mulliken charges:
               1
     1  C   -0.093482
     2  C   -0.082611
     3  C   -0.082613
     4  C   -0.093480
     5  H    0.076805
     6  H    0.077661
     7  H    0.077658
     8  H    0.076805
     9  C    0.003332
    10  C   -0.135616
    11  H    0.087782
    12  H    0.087759
 Sum of Mulliken charges =   0.00000

 Dipole moment (field-independent basis, Debye):
    X=             -0.6018    Y=             -0.0000    Z=              0.0000  Tot=              0.6018
 Quadrupole moment (field-independent basis, Debye-Ang):
   XX=            -29.1891   YY=            -30.7833   ZZ=            -35.1688
   XY=              0.0003   XZ=              0.0000   YZ=             -0.0000

 Normal termination of Gaussian 16 at Thu Sep 24 18:09:25 2020.
